                         Program Version 5.0.4 -  RELEASE  -
|  1> ! B3LYP SVP
|  2> * xyz 0 1
|  3> C  -0.79263  0.55338  -1.58694
|  4> C   0.68078  0.13314  -1.72622
|  5> C   1.50034  0.61020  -0.52199
|  6> C   1.01517 -0.06749   0.77103
|  7> C  -0.49095 -0.38008   0.74228
|  8> C  -1.24341  0.64080  -0.11866
|  9> H   1.10490  0.53546  -2.67754
| 10> H   0.76075 -0.97866  -1.78666
| 11> H  -0.95741  1.54560  -2.07170
| 12> H  -1.42795 -0.17916  -2.14055
| 13> H  -2.34640  0.48232  -0.04725
| 14> H  -1.04144  1.66089   0.28731
| 15> H  -0.66608 -1.39636   0.31480
| 16> H  -0.89815 -0.39708   1.78184
| 17> H   1.25353  0.59796   1.63523
| 18> H   1.57519 -1.01856   0.93954
| 19> H   2.58691  0.40499  -0.67666
| 20> H   1.39420  1.71843  -0.44053
| 21> **                         ****END OF INPUT****

CARTESIAN COORDINATES (ANGSTROEM)
---------------------------------
  C     -0.792630    0.553380   -1.586940
  C      0.680780    0.133140   -1.726220
  C      1.500340    0.610200   -0.521990
  C      1.015170   -0.067490    0.771030
  C     -0.490950   -0.380080    0.742280
  C     -1.243410    0.640800   -0.118660
  H      1.104900    0.535460   -2.677540
  H      0.760750   -0.978660   -1.786660
  H     -0.957410    1.545600   -2.071700
  H     -1.427950   -0.179160   -2.140550
  H     -2.346400    0.482320   -0.047250
  H     -1.041440    1.660890    0.287310
  H     -0.666080   -1.396360    0.314800
  H     -0.898150   -0.397080    1.781840
  H      1.253530    0.597960    1.635230
  H      1.575190   -1.018560    0.939540
  H      2.586910    0.404990   -0.676660
  H      1.394200    1.718430   -0.440530

 Total Charge           Charge          ....    0
 Multiplicity           Mult            ....    1
 Number of Electrons    NEL             ....   48
 Basis Dimension        Dim             ....  144

ORBITAL ENERGIES
----------------

  NO   OCC          E(Eh)            E(eV)
   0   2.0000     -10.176072      -276.9050
   1   2.0000     -10.176062      -276.9047
   2   2.0000     -10.176032      -276.9039
   3   2.0000     -10.175971      -276.9023
   4   2.0000     -10.175940      -276.9014
   5   2.0000     -10.175901      -276.9004
   6   2.0000      -0.816005       -22.2046
   7   2.0000      -0.721731       -19.6393
   8   2.0000      -0.721555       -19.6345
   9   2.0000      -0.600466       -16.3395
  10   2.0000      -0.590384       -16.0652
  11   2.0000      -0.507274       -13.8036
  12   2.0000      -0.476051       -12.9540
  13   2.0000      -0.471477       -12.8295
  14   2.0000      -0.427110       -11.6223
  15   2.0000      -0.393043       -10.6952
  16   2.0000      -0.371033       -10.0963
  17   2.0000      -0.364606        -9.9214
  18   2.0000      -0.363121        -9.8810
  19   2.0000      -0.351183        -9.5562
  20   2.0000      -0.343887        -9.3577
  21   2.0000      -0.294861        -8.0236
  22   2.0000      -0.294323        -8.0089
  23   2.0000      -0.291510        -7.9324
  24   0.0000       0.046539         1.2664
  25   0.0000       0.069878         1.9015
  26   0.0000       0.089688         2.4405
  27   0.0000       0.101305         2.7566
  28   0.0000       0.114112         3.1051

MULLIKEN ATOMIC CHARGES
-----------------------
   0 C :    0.005954
   1 C :    0.005820
   2 C :    0.007425
   3 C :    0.006861
   4 C :    0.005766
   5 C :    0.007745
   6 H :   -0.000372
   7 H :   -0.006748
   8 H :   -0.002451
   9 H :   -0.002535
  10 H :   -0.000535
  11 H :   -0.007054
  12 H :   -0.006761
  13 H :   -0.000517
  14 H :   -0.002671
  15 H :   -0.002467
  16 H :   -0.000599
  17 H :   -0.006862
Sum of atomic charges:    0.0000000

LOEWDIN ATOMIC CHARGES
----------------------
   0 C :   -0.039444
   1 C :   -0.039895
   2 C :   -0.039751
   3 C :   -0.039375
   4 C :   -0.039858
   5 C :   -0.039743
   6 H :    0.021747
   7 H :    0.017537
   8 H :    0.020302
   9 H :    0.020316
  10 H :    0.021704
  11 H :    0.017450
  12 H :    0.017533
  13 H :    0.021710
  14 H :    0.020286
  15 H :    0.020307
  16 H :    0.021704
  17 H :    0.017470

  Mayer bond orders larger than 0.100000
B(  0-C ,  1-C ) :   1.0909 B(  0-C ,  5-C ) :   1.0925 B(  0-C ,  8-H ) :   0.9387
B(  0-C ,  9-H ) :   0.9388 B(  1-C ,  2-C ) :   1.1381 B(  1-C ,  6-H ) :   0.9398
B(  1-C ,  7-H ) :   0.9284 B(  2-C ,  3-C ) :   1.0927 B(  2-C , 16-H ) :   0.9397
B(  2-C , 17-H ) :   0.9277 B(  3-C ,  4-C ) :   1.0907 B(  3-C , 14-H ) :   0.9386
B(  3-C , 15-H ) :   0.9388 B(  4-C ,  5-C ) :   1.1382 B(  4-C , 12-H ) :   0.9285
B(  4-C , 13-H ) :   0.9398 B(  5-C , 10-H ) :   0.9397 B(  5-C , 11-H ) :   0.9276

FINAL SINGLE POINT ENERGY      -235.524635486597

DIPOLE MOMENT
-------------
                                X             Y             Z
Electronic contribution:      0.00050       0.00396       0.00104
Nuclear contribution   :     -0.00044      -0.00327      -0.00094
                        -----------------------------------------
Total Dipole Moment    :      0.00006       0.00069       0.00010
                        -----------------------------------------
Magnitude (a.u.)       :      0.00070
Magnitude (Debye)      :      0.00178

Rotational constants in cm-1:     0.146018     0.138615     0.084703
Rotational constants in MHz :  4377.497924  4155.567615  2539.326000

                             ****ORCA TERMINATED NORMALLY****
TOTAL RUN TIME: 0 days 0 hours 2 minutes 23 seconds 113 msec
